  ==> Input File <==

--------------------------------------------------------------------------
# PYTHONPATH must include directory above plugin directory.
#     Define either externally or here, then import plugin.
sys.path.insert(0, './..')
import vcd

#molecule {
#0 1
#    O         0.000000000000     0.000000000000    -0.116529192243
#    H        -0.000000000000     1.344767972762     0.924701422022
#    H        -0.000000000000    -1.344767972762     0.924701422022
#no_reorient
#no_com
#units bohr
#symmetry c1
#}

#molecule water{
#O
#H 1 1.1
#H 1 1.1 2 104
#
#symmetry c1
#}

molecule h2o2 {
 O     -0.028962160801    -0.694396279686    -0.049338350190
 O      0.028962160801     0.694396279686    -0.049338350190
 H      0.350498145881    -0.910645626300     0.783035421467
 H     -0.350498145881     0.910645626300     0.783035421467
no_reorient
no_com
symmetry c1
}

set {
  basis 4-31g
  freeze_core false
  dertype none
  e_convergence 13
  r_convergence 13
  r_convergence 13
}

gradient('mp2')
--------------------------------------------------------------------------

    Molecular point group: c1

    Geometry (in Angstrom), charge = 0, multiplicity = 1:

       Center              X                  Y                   Z               Mass
    ------------   -----------------  -----------------  -----------------  -----------------
         O           -0.028962160801    -0.694396279686    -0.049338350190    15.994914619570
         O            0.028962160801     0.694396279686    -0.049338350190    15.994914619570
         H            0.350498145881    -0.910645626300     0.783035421467     1.007825032230
         H           -0.350498145881     0.910645626300     0.783035421467     1.007825032230

  Charge       = 0
  Multiplicity = 1
  Basis Set: 4-31G
    Blend: 4-31G

    Orbital Energies [Eh]
    ---------------------

    Doubly Occupied:

       1A    -20.596294     2A    -20.596216     3A     -1.534359
       4A     -1.225426     5A     -0.777339     6A     -0.677210
       7A     -0.609137     8A     -0.541714     9A     -0.471155

  @RHF Final Energy:  -150.54173380132630

   => Energetics <=

    Nuclear Repulsion Energy =             38.2539685310377138
    One-Electron Energy =                -283.5337034474413258
    Two-Electron Energy =                  94.7380011150773385
    Total Energy =                       -150.5417338013262736

  Dipole Moment: [D]
     X:     0.0000      Y:     0.0000      Z:     3.7584     Total:     3.7584

*** Psi4 exiting successfully. Buy a developer a beer!
