  ==> Input File <==

--------------------------------------------------------------------------
sys.path.insert(0, './../..')
import vcd

molecule h2o2 {
    O       0.0000000000        1.3192641900       -0.0952542913
    O      -0.0000000000       -1.3192641900       -0.0952542913
    H       1.6464858700        1.6841036400        0.7620343300
    H      -1.6464858700       -1.6841036400        0.7620343300
symmetry c1
units bohr
noreorient
no_com
}

set {
  basis sto-3g
  scf_type pk
  e_convergence 13
  d_convergence 13
}

gradient('mp2')
--------------------------------------------------------------------------

    Molecular point group: c1

    Geometry (in Bohr), charge = 0, multiplicity = 1:

       Center              X                  Y                   Z               Mass
    ------------   -----------------  -----------------  -----------------  -----------------
         O            0.000000000000     1.319264190000    -0.095254291300    15.994914619570
         O            0.000000000000    -1.319264190000    -0.095254291300    15.994914619570
         H            1.646485870000     1.684103640000     0.762034330000     1.007825032230
         H           -1.646485870000    -1.684103640000     0.762034330000     1.007825032230

  Charge       = 0
  Multiplicity = 1
  Basis Set: STO-3G
    Blend: STO-3G

    Orbital Energies [Eh]
    ---------------------

    Doubly Occupied:

       1A    -20.317190     2A    -20.316404     3A     -1.409153
       4A     -1.103616     5A     -0.598541     6A     -0.597718
       7A     -0.501420     8A     -0.393043     9A     -0.348731

  @RHF Final Energy:  -148.76499662071524

   => Energetics <=

    Nuclear Repulsion Energy =             37.4573576862030322
    One-Electron Energy =                -281.2730773280524090
    Two-Electron Energy =                  95.0507230211341323
    Total Energy =                       -148.7649966207152374

  Dipole Moment: [D]
     X:    -0.0000      Y:    -0.0000      Z:     1.3052     Total:     1.3052

*** Psi4 exiting successfully. Buy a developer a beer!
