  ==> Input File <==

--------------------------------------------------------------------------
# PYTHONPATH must include directory above plugin directory.
#     Define either externally or here, then import plugin.
sys.path.insert(0, './../..')
import vcd

molecule ethylene_oxide {
O       0.0000000000        0.0000000000        1.6119363900
C       0.0000000000       -1.3813890400       -0.7062143040
C       0.0000000000        1.3813905700       -0.7062514120
H      -1.7489765900       -2.3794725300       -1.1019539000
H       1.7489765900       -2.3794725300       -1.1019539000
H       1.7489765900        2.3794634300       -1.1020178200
H      -1.7489765900        2.3794634300       -1.1020178200
symmetry c1
no_reorient
no_com
units bohr
}

set {
  basis 4-31g
  freeze_core false
  dertype none
  e_convergence 13
  r_convergence 13
  r_convergence 13
  scf_type pk
  print_mos true
}

gradient('mp2')
--------------------------------------------------------------------------

    Molecular point group: c1

    Geometry (in Bohr), charge = 0, multiplicity = 1:

       Center              X                  Y                   Z               Mass
    ------------   -----------------  -----------------  -----------------  -----------------
         O            0.000000000000     0.000000000000     1.611936390000    15.994914619570
         C            0.000000000000    -1.381389040000    -0.706214304000    12.000000000000
         C            0.000000000000     1.381390570000    -0.706251412000    12.000000000000
         H           -1.748976590000    -2.379472530000    -1.101953900000     1.007825032230
         H            1.748976590000    -2.379472530000    -1.101953900000     1.007825032230
         H            1.748976590000     2.379463430000    -1.102017820000     1.007825032230
         H           -1.748976590000     2.379463430000    -1.102017820000     1.007825032230

  Charge       = 0
  Multiplicity = 1
  Basis Set: 4-31G
    Blend: 4-31G

    Orbital Energies [Eh]
    ---------------------

    Doubly Occupied:

       1A    -20.538482     2A    -11.272393     3A    -11.271964
       4A     -1.431790     5A     -0.936788     6A     -0.867470
       7A     -0.717235     8A     -0.653646     9A     -0.549512
      10A     -0.539827    11A     -0.450508    12A     -0.450131

  @RHF Final Energy:  -152.62495304814135

   => Energetics <=

    Nuclear Repulsion Energy =             75.3690533848435251
    One-Electron Energy =                -356.6285216818105823
    Two-Electron Energy =                 128.6345152488256929
    Total Energy =                       -152.6249530481413501

  Dipole Moment: [D]
     X:    -0.0000      Y:    -0.0000      Z:    -2.8647     Total:     2.8647

*** Psi4 exiting successfully. Buy a developer a beer!
